#Two hydrogen atoms

2 atoms
0 3.0 xlo xhi
0 3.0 ylo yhi
0 3.0 zlo zhi

1 atom types

Masses

1 1.00794

Atoms

1      1      2.0     0         0 
2      1      1.0     0         0 
