#Two hydrogen atoms

2 atoms
0 2.1 xlo xhi
0 2.1 ylo yhi
0 2.1 zlo zhi

1 atom types

Masses

1 1.00794

Atoms

4      1      1.9      1.9      1.9
34      1      0.1      0.1      0.1
