#Two hydrogen atoms

2 atoms
0 2.5 xlo xhi
0 2.5 ylo yhi
0 2.5 zlo zhi

1 atom types

Masses

1 1.00794

Atoms

1      1      0.1      0      0
2      1      1.1      0      0
