/ssd/local/code/lammps/examples/rascal/methane_pbc2.lammps (written by ASE) 

5 	 atoms 
2  atom types
0.0                       5  xlo xhi
0.0                       5  ylo yhi
0.0                       5  zlo zhi

Masses

1 28.0000
2 24.0000

Atoms 

     1   1                     2.5                     2.5                     2.5
     2   2      3.1291180000000001      3.1291180000000001      3.1291180000000001
     3   2      1.8708819999999999      1.8708819999999999      3.1291180000000001
     4   2      3.1291180000000001      1.8708819999999999      1.8708819999999999
     5   2      1.8708819999999999      3.1291180000000001      1.8708819999999999
