methane_pbc.lammps (written by ASE) 

5 	 atoms 
2  atom types
0.0                       5  xlo xhi
0.0                       5  ylo yhi
0.0                       5  zlo zhi

Masses

1 28.0000
2 24.0000

Atoms 

     1   1                       0                       0                       0
     2   2     0.62911799999999984     0.62911799999999984     0.62911799999999984
     3   2      4.3708819999999999      4.3708819999999999     0.62911799999999984
     4   2     0.62911799999999984      4.3708819999999999      4.3708819999999999
     5   2      4.3708819999999999     0.62911799999999984      4.3708819999999999
