../../test/M-data.h128-metalunits (written by ASE) 

128 	 atoms 
1  atom types
0.0       5.518159408089728  xlo xhi
0.0       5.518159408089728  ylo yhi
0.0       5.518159408089728  zlo zhi

Masses

1 1.008

Atoms 

     1   1      3.0122513099999999      5.4572087800000002      3.9747982000000004
     2   1      3.2948689800000004      4.3657860700000004      4.1288099300000001
     3   1      4.1550677100000009      5.4879486799999997      4.2603316400000004
     4   1      5.1108728799999996      3.3993550199999998      5.3230411899999996
     5   1     0.99004294000000004      3.5232459899999999      3.6629170300000005
     6   1      2.3280728000000006      5.2290064000000003      5.2800508300000004
     7   1      4.9928081500000001      1.9202412200000003              1.91496003
     8   1      2.9821940499999999     0.34156271999999999      2.0483761899999999
     9   1              2.24511898      5.4917693400000003      3.2822586899999999
    10   1      2.6499501300000001     0.35124667000000004     0.57349050999999995
    11   1              1.56344349      5.0636120599999996      1.7920162900000003
    12   1      2.0576209099999998      4.1363242500000004      5.0845410199999996
    13   1      1.6296488500000001      3.3616458599999999      1.0260216900000001
    14   1      5.3764563300000008      3.4185535700000003      4.4897722900000003
    15   1      4.3012582000000013              3.87157689    0.013806229999999999
    16   1     0.65311050999999998      2.8287749900000003      2.1311765500000002
    17   1      2.7527375200000002              1.25232962      5.5036017400000006
    18   1     0.80023236000000009      4.8683774199999998      3.9492812700000006
    19   1      5.3334977300000004      4.0493433899999998      3.5477257300000002
    20   1      3.6350505500000003      2.4128575799999998      4.4877984599999996
    21   1      3.3107813400000006              4.13305393     0.97452217000000008
    22   1     0.37759968999999999      3.6223555900000002     0.83809498999999998
    23   1      4.2981625200000009      4.4877455399999997              1.54577426
    24   1     0.99891724000000004      2.2351492899999998      2.8914560300000001
    25   1      4.3267751299999997      5.3413083800000001      1.8979046500000003
    26   1              0.46807841      1.0892160399999999      1.0673980599999999
    27   1      3.8600672899999999              0.28482963     0.16931553999999999
    28   1      4.7856775999999996      5.0940291700000007      3.2046336900000005
    29   1      5.3199402100000004               4.9689793      2.5444533699999998
    30   1     0.50319990000000003      4.4337535900000002              1.99398736
    31   1     0.28999440000000004     0.22543478000000003      3.2771045000000005
    32   1      4.4670917599999997              1.32507032      4.5248831999999997
    33   1      5.3118596699999996      2.8914877800000003      3.4646025700000003
    34   1      2.4768986000000002     0.97526831000000003      3.4401863399999999
    35   1      2.4780363300000001               3.8588396     0.92633529000000003
    36   1     0.19837266000000001      1.4617197500000003      2.2487121000000001
    37   1      3.7380337300000006      2.8004904700000002              1.52164378
    38   1              2.03525789    0.030178980000000005      4.3846988700000002
    39   1      1.4427910800000001      1.7991813500000002      5.5165030799999997
    40   1      4.2575269999999996      2.8144448700000004     0.34145160000000002
    41   1      2.3468056800000001      4.7556679700000002     0.64710434999999999
    42   1    0.062453490000000007     0.36620121000000005      4.2355185200000003
    43   1      4.9759856100000013              1.17571005     0.12394389000000001
    44   1      4.2167644800000001      4.0121316499999997      3.3221216100000004
    45   1      4.1503633200000003      1.2574255999999999     0.91518023999999998
    46   1      3.2729240000000002      1.0496071199999999      3.7665140500000001
    47   1      4.0094804699999997     0.61862932999999998      2.0687547999999998
    48   1      3.7524749800000001      3.4457215300000006      1.0639848700000001
    49   1      5.1554348900000013      2.5678165399999999     0.59104332000000004
    50   1              1.93951385      4.6074401399999996      2.8983088700000006
    51   1      4.7505719900000001      2.7386825699999999      2.6643596299999999
    52   1      2.1996838300000001      2.1428554900000001      2.5261544200000006
    53   1      1.6019887500000001      3.8551776900000001      3.0415306900000001
    54   1     0.91211101000000017      4.7709347299999996     0.81057778000000014
    55   1              1.26228344              0.68017264      1.4853528000000003
    56   1     0.29062411999999999      4.7694689099999996      1.2123926200000001
    57   1              0.16554251     0.93044170999999998      5.3702861300000002
    58   1      4.9870295300000009      5.3891565899999998     0.76075574000000001
    59   1      3.9577639800000002      1.7801891800000003      2.4801318800000001
    60   1     0.68915806000000002      4.5865852599999997      4.9369746599999997
    61   1    0.091150770000000006      1.9025455300000003      4.4578099900000003
    62   1              3.48673806      1.3068454600000001      3.1552826200000004
    63   1      3.0994120900000004      2.9612492100000001      5.2266039299999996
    64   1      1.3242024699999999              1.51116078      1.0318902700000001
    65   1      2.9121151099999998      3.8075993700000001      5.4698984500000005
    66   1      3.2428455700000001      1.7052682700000001     0.86830043000000012
    67   1      1.0952645299999999      2.6669420100000001      5.0005447199999997
    68   1      5.3507594899999997     0.39615794000000004      1.4066059400000002
    69   1              3.76305852      4.0859465799999999      5.1755224599999998
    70   1      5.2117710900000009      3.3621697400000006      2.3394236500000001
    71   1      1.4971905000000003      1.1691747100000001              3.75621626
    72   1      2.7093238199999998     0.80416944000000012              1.28369924
    73   1              1.98700751      3.3004306400000001      3.9656275600000006
    74   1      3.0790281799999999      2.8414540700000006      3.0965968700000004
    75   1      5.5115023600000006      4.8932540400000004      4.5061238699999997
    76   1      3.0778428300000003      5.4159012000000004      4.7837408200000002
    77   1      2.6914164600000006      4.2447526600000005      2.4339558700000001
    78   1      3.5313953200000001    0.061188760000000002     0.91396313000000007
    79   1      4.3146410900000003      2.1744897000000001      3.7724725800000005
    80   1     0.76468223999999996      3.5598491800000001      1.8483948300000002
    81   1      2.1114964500000002     0.89298124999999995      5.2412039300000011
    82   1      4.9798433099999997      1.4289001800000003      3.5258125000000002
    83   1      3.8291739200000001              1.33207133      4.8561375500000006
    84   1      4.5676089700000002      2.4829788499999998      5.2094691700000002
    85   1      1.7648112899999999      4.6972785500000001      1.1384030599999999
    86   1     0.78419300000000014      3.1449213299999998     0.55290552000000004
    87   1      1.0298264800000001      1.4545758600000003       4.485258410000001
    88   1      1.0709700099999999     0.28100897000000008      5.0262203999999997
    89   1      4.4941909200000003      4.9007313100000003              4.54163695
    90   1     0.83349644000000001      0.7325558900000001      2.5685415100000002
    91   1      2.4443012900000003      2.0646431000000005      3.5635693000000002
    92   1      4.5880457899999998      2.2661802400000002      1.4364356599999999
    93   1      1.5674758200000003     0.19292743000000001     0.65701584000000002
    94   1              4.83325593     0.92842553999999999     0.93852753000000011
    95   1              2.14297191      2.3332217000000002              1.04137312
    96   1      3.4856109100000001      1.8948354200000002   0.0060167400000000005
    97   1      4.3990025300000006      4.8337321900000001     0.43161281000000001
    98   1      4.9079492900000004     0.63596516999999997      4.8127185600000013
    99   1      2.7384126900000005              1.82073474               1.5719897
   100   1              3.08385957              2.82912425      2.2798859299999998
   101   1      2.5030029100000002      3.2931174099999998      1.8808439800000001
   102   1      5.5168205900000009      2.7134302300000002      4.4604400000000002
   103   1  0.00073034000000000011              3.76277806      2.6976819200000004
   104   1      2.9668743700000002     0.59835126000000005      5.3093672500000002
   105   1     0.86378653999999999      2.1874704199999999      1.6511387300000002
   106   1      3.6050409100000005      4.7993832899999997              2.03111972
   107   1      1.8239521299999999      2.2463890100000001      4.0617684699999996
   108   1      2.8978802400000001      3.1515466300000003      4.2757042399999996
   109   1      1.1164422000000003      5.2433682700000004      5.5067715100000001
   110   1      4.7202130899999997      3.7566131400000002      1.0781562300000003
   111   1      2.3524308299999999      2.7395715900000006     0.19504890000000003
   112   1      2.4421051999999999     0.87006258999999997      2.4884240800000001
   113   1      2.5564074799999998      1.6129268500000002      4.3395600500000002
   114   1      4.5016682000000001              3.72694218      4.1696147900000007
   115   1      1.2223411500000001      5.4747298300000011      3.7228410500000004
   116   1     0.71209790000000006      2.0423753200000001              0.16292308
   117   1              1.54987538    0.039809999999999998      2.5133483299999999
   118   1      4.2668775600000002      3.0138917600000004      3.5192136600000001
   119   1      4.0460836599999999              0.07656665      3.4079488599999999
   120   1              0.90545396      4.8364309900000011      2.9130570400000004
   121   1      1.4690911900000003      4.2976280500000001      4.4113958599999998
   122   1      2.5143431800000005      3.6750563500000002      3.2513071200000003
   123   1       5.182936230000001      1.0435427500000003      2.5334200199999999
   124   1      2.3300307600000001      4.3989019799999998      4.2968977800000001
   125   1      1.7252976300000002      2.6095580400000005      2.5816968600000005
   126   1              3.58486868      4.3150961900000002      3.0177124200000005
   127   1     0.69394182999999998      1.5915427900000001      3.1877582200000005
   128   1      3.6933500100000001      3.6137988000000005              2.14857589
